
#(C) 2019 by FIZ Karlsruhe - Leibniz Institute for Information Infrastructure.  All rights reserved.
data_48007-ICSD
_database_code_ICSD 48007
_audit_creation_date 1984-12-31
_audit_update_record 2012-08-01
_chemical_name_systematic 'Lithium ruthenium oxide'
_chemical_formula_structural 'Li Ru O2'
_chemical_formula_sum 'Li1 O2 Ru1'
_exptl_crystal_density_diffrn 6.67
_publ_section_title

;
Neutron and X-Ray Powder Diffraction Study of Lix Ru O2 and Lix Ir O2: The
Crystal Structure of Li0.9 Ru O2
;
loop_
_citation_id
_citation_journal_full
_citation_year
_citation_journal_volume
_citation_page_first
_citation_page_last
_citation_journal_id_ASTM
primary 'Journal of Solid State Chemistry' 1984 51 104 117 JSSCBI
loop_
_publ_author_name
'Davidson, I.J.'
'Greedan, J.E.'
_cell_length_a 5.062(3)
_cell_length_b 4.967(4)
_cell_length_c 2.771(4)
_cell_angle_alpha 90.
_cell_angle_beta 90.
_cell_angle_gamma 90.
_cell_volume 69.67
_cell_formula_units_Z 2
_symmetry_space_group_name_H-M 'P n n m'
_symmetry_Int_Tables_number 58
_refine_ls_R_factor_all 0.0962
loop_
_symmetry_equiv_pos_site_id
_symmetry_equiv_pos_as_xyz
1 'x+1/2, -y+1/2, z+1/2'
2 '-x+1/2, y+1/2, z+1/2'
3 'x, y, -z'
4 '-x, -y, -z'
5 '-x+1/2, y+1/2, -z+1/2'
6 'x+1/2, -y+1/2, -z+1/2'
7 '-x, -y, z'
8 'x, y, z'
loop_
_atom_type_symbol
_atom_type_oxidation_number
Ru3+ 3
O2- -2
Li1+ 1
loop_
_atom_site_label
_atom_site_type_symbol
_atom_site_symmetry_multiplicity
_atom_site_Wyckoff_symbol
_atom_site_fract_x
_atom_site_fract_y
_atom_site_fract_z
_atom_site_B_iso_or_equiv
_atom_site_occupancy
_atom_site_attached_hydrogens
Ru1 Ru3+ 2 a 0 0 0 0.31(35) 1. 0
O1 O2- 4 g 0.2555(40) 0.3365(4) 0 0.10(26) 1. 0
Li1 Li1+ 2 d 0 0.5 0.5 3.(2) 1. 0
#End of TTdata_48007-ICSD